
Please copy the file /lrz/sys/applications/nwchem/6.3/impi/.nwchemrc to your home directory.
This file is necessary for NWChem to find the standard libraries.
 argument  1 = optimize.nw
 


============================== echo of input deck ==============================
echo
title "Dextran Optimization"

start dextran

geometry
    C       1.645   1.651   0.607
    C       1.877   0.436   1.535
    C       0.838  -0.665   1.233
    O       1.064  -1.649   2.249
    C      -0.581  -0.071   1.371
    C      -0.736   1.188   0.483
    C      -2.034   1.953   0.785
    O      -3.147   1.098   0.485
    O       0.307   2.148   0.776
    O      -1.458  -1.091   0.882
    O       3.212  -0.001   1.294
    O       1.771   1.206  -0.728
    H      -0.661   0.906  -0.593
    H       2.277   2.533   0.833
    H       1.813   0.752   2.606
    H       0.994  -1.130   0.232
    H      -0.825   0.134   2.437
    H       1.768   1.958  -1.358
    H       3.311  -0.934   1.610
    H      -2.155   2.172   1.864
    H      -2.096   2.897   0.217
    H      -2.398  -0.756   0.913
    H       0.405  -2.377   2.153
    H      -3.297   1.056  -0.485
end

basis
    * library 6-31g
end

dft
    grid xfine
    xc b3lyp
    mult 1
end

task dft optimize
task dft frequency
task dft energy
================================================================================


                                         
                                         
 
 
              Northwest Computational Chemistry Package (NWChem) 6.3
              ------------------------------------------------------
 
 
                    Environmental Molecular Sciences Laboratory
                       Pacific Northwest National Laboratory
                                Richland, WA 99352
 
                              Copyright (c) 1994-2012
                       Pacific Northwest National Laboratory
                            Battelle Memorial Institute
 
             NWChem is an open-source computational chemistry package
                        distributed under the terms of the
                      Educational Community License (ECL) 2.0
             A copy of the license is included with this distribution
                              in the LICENSE.TXT file
 
                                  ACKNOWLEDGMENT
                                  --------------

            This software and its documentation were developed at the
            EMSL at Pacific Northwest National Laboratory, a multiprogram
            national laboratory, operated for the U.S. Department of Energy
            by Battelle under Contract Number DE-AC05-76RL01830. Support
            for this work was provided by the Department of Energy Office
            of Biological and Environmental Research, Office of Basic
            Energy Sciences, and the Office of Advanced Scientific Computing.


           Job information
           ---------------

    hostname        = lxa167
    program         = /lrz/sys/applications/nwchem/6.3/impi/bin/impi_nwchem
    date            = Wed Mar 26 08:59:50 2014

    compiled        = So_Nov_03_16:01:52_2013
    source          = /lrz/sys/applications/nwchem/6.3/impi
    nwchem branch   = 6.3
    nwchem revision = 24652
    ga revision     = 10379
    input           = optimize.nw
    prefix          = dextran.
    data base       = ./dextran.db
    status          = startup
    nproc           =        8
    time left       =     -1s



           Memory information
           ------------------

    heap     =   13107201 doubles =    100.0 Mbytes
    stack    =   13107201 doubles =    100.0 Mbytes
    global   =   26214400 doubles =    200.0 Mbytes (distinct from heap & stack)
    total    =   52428802 doubles =    400.0 Mbytes
    verify   = yes
    hardfail = no 


           Directory information
           ---------------------
 
  0 permanent = .
  0 scratch   = .
 
 
 
 
                                NWChem Input Module
                                -------------------
 
 
                               Dextran Optimization
                               --------------------

 Scaling coordinates for geometry "geometry" by  1.889725989
 (inverse scale =  0.529177249)

 C1  symmetry detected

          ------
          auto-z
          ------
 
 
                             Geometry "geometry" -> ""
                             -------------------------
 
 Output coordinates in angstroms (scale by  1.889725989 to convert to a.u.)
 
  No.       Tag          Charge          X              Y              Z
 ---- ---------------- ---------- -------------- -------------- --------------
    1 C                    6.0000    -1.46614374     1.14413858     0.20689570
    2 C                    6.0000    -0.06510930     1.71491488     0.52712986
    3 C                    6.0000     1.01933089     0.89126609    -0.19986268
    4 O                    8.0000     2.25401338     1.41946224     0.29828989
    5 C                    6.0000     0.87513838    -0.59435448     0.19710210
    6 C                    6.0000    -0.56583764    -1.09462824    -0.06928912
    7 C                    6.0000    -0.82112322    -2.47886066     0.54712217
    8 O                    8.0000     0.06386940    -3.42368039    -0.07247265
    9 O                    8.0000    -1.53043439    -0.23978429     0.58956816
   10 O                    8.0000     1.77429411    -1.29692080    -0.66694045
   11 O                    8.0000    -0.08269174     3.07603064     0.10483880
   12 O                    8.0000    -1.65085943     1.21049323    -1.19224803
   13 H                    1.0000    -0.77633582    -1.08237864    -1.16403359
   14 H                    1.0000    -2.29577190     1.60717689     0.77762912
   15 H                    1.0000     0.11081637     1.70600970     1.63164960
   16 H                    1.0000     0.98273033     1.02726160    -1.30563283
   17 H                    1.0000     1.18800405    -0.75678616     1.25239733
   18 H                    1.0000    -2.57291061     0.98803464    -1.44274112
   19 H                    1.0000     0.84816559     3.39401872    -0.00711751
   20 H                    1.0000    -0.54330141    -2.52293147     1.61843716
   21 H                    1.0000    -1.87371241    -2.79051208     0.43516957
   22 H                    1.0000     1.70556500    -2.27590925    -0.48351761
   23 H                    1.0000     3.00730502     0.91342327    -0.08895327
   24 H                    1.0000    -0.26361714    -3.66706931    -0.96616074
 
      Atomic Mass 
      ----------- 
 
      C                 12.000000
      O                 15.994910
      H                  1.007825
 

 Effective nuclear repulsion energy (a.u.)     831.0546105050

            Nuclear Dipole moment (a.u.) 
            ----------------------------
        X                 Y               Z
 ---------------- ---------------- ----------------
    -0.0000000000     0.0000000000    -0.0000000000
 


                                Z-matrix (autoz)
                                -------- 

 Units are Angstrom for bonds and degrees for angles
 
      Type          Name      I     J     K     L     M      Value
      ----------- --------  ----- ----- ----- ----- ----- ----------
    1 Stretch                  1     2                       1.54636
    2 Stretch                  1     9                       1.43729
    3 Stretch                  1    12                       1.41284
    4 Stretch                  1    14                       1.10834
    5 Stretch                  2     3                       1.54367
    6 Stretch                  2    11                       1.42523
    7 Stretch                  2    15                       1.11848
    8 Stretch                  3     4                       1.43234
    9 Stretch                  3     5                       1.54449
   10 Stretch                  3    16                       1.11470
   11 Stretch                  4    23                       0.98665
   12 Stretch                  5     6                       1.54843
   13 Stretch                  5    10                       1.43131
   14 Stretch                  5    17                       1.11262
   15 Stretch                  6     7                       1.53663
   16 Stretch                  6     9                       1.44751
   17 Stretch                  6    13                       1.11487
   18 Stretch                  7     8                       1.43520
   19 Stretch                  7    20                       1.10763
   20 Stretch                  7    21                       1.10345
   21 Stretch                  8    24                       0.98243
   22 Stretch                 10    22                       0.99839
   23 Stretch                 11    19                       0.99002
   24 Stretch                 12    18                       0.98103
   25 Bend                     1     2     3               109.99956
   26 Bend                     1     2    11               106.25831
   27 Bend                     1     2    15               110.12527
   28 Bend                     1     9     6               114.68554
   29 Bend                     1    12    18               111.41329
   30 Bend                     2     1     9               109.92522
   31 Bend                     2     1    12               107.83031
   32 Bend                     2     1    14               114.66675
   33 Bend                     2     3     4               104.18260
   34 Bend                     2     3     5               109.06246
   35 Bend                     2     3    16               112.27262
   36 Bend                     2    11    19               109.18694
   37 Bend                     3     2    11               112.25243
   38 Bend                     3     2    15               110.50732
   39 Bend                     3     4    23               109.42004
   40 Bend                     3     5     6               110.69740
   41 Bend                     3     5    10               104.97169
   42 Bend                     3     5    17               110.97451
   43 Bend                     4     3     5               110.23048
   44 Bend                     4     3    16               109.16663
   45 Bend                     5     3    16               111.66919
   46 Bend                     5     6     7               112.12525
   47 Bend                     5     6     9               110.55030
   48 Bend                     5     6    13               109.94339
   49 Bend                     5    10    22               109.09677
   50 Bend                     6     5    10               108.79395
   51 Bend                     6     5    17               112.19078
   52 Bend                     6     7     8               108.50617
   53 Bend                     6     7    20               112.46784
   54 Bend                     6     7    21               111.85133
   55 Bend                     7     6     9               103.80953
   56 Bend                     7     6    13               111.86587
   57 Bend                     7     8    24               110.50326
   58 Bend                     8     7    20               103.69176
   59 Bend                     8     7    21               111.00686
   60 Bend                     9     1    12               107.64009
   61 Bend                     9     1    14               103.39594
   62 Bend                     9     6    13               108.33916
   63 Bend                    10     5    17               108.92081
   64 Bend                    11     2    15               107.58640
   65 Bend                    12     1    14               113.10802
   66 Bend                    20     7    21               109.03569
   67 Torsion                  1     2     3     4        -173.57742
   68 Torsion                  1     2     3     5         -55.88742
   69 Torsion                  1     2     3    16          68.42424
   70 Torsion                  1     2    11    19        -160.56125
   71 Torsion                  1     9     6     5          57.78857
   72 Torsion                  1     9     6     7         178.20946
   73 Torsion                  1     9     6    13         -62.74407
   74 Torsion                  2     1     9     6         -59.47727
   75 Torsion                  2     1    12    18        -171.42186
   76 Torsion                  2     3     4    23         177.35189
   77 Torsion                  2     3     5     6          54.31344
   78 Torsion                  2     3     5    10         171.54129
   79 Torsion                  2     3     5    17         -70.94308
   80 Torsion                  3     2     1     9          57.59054
   81 Torsion                  3     2     1    12         -59.48668
   82 Torsion                  3     2     1    14         173.54449
   83 Torsion                  3     2    11    19         -40.27956
   84 Torsion                  3     5     6     7        -169.47215
   85 Torsion                  3     5     6     9         -54.15692
   86 Torsion                  3     5     6    13          65.41325
   87 Torsion                  3     5    10    22        -177.97327
   88 Torsion                  4     3     2    11          68.33451
   89 Torsion                  4     3     2    15         -51.77029
   90 Torsion                  4     3     5     6         168.11794
   91 Torsion                  4     3     5    10         -74.65421
   92 Torsion                  4     3     5    17          42.86142
   93 Torsion                  5     3     2    11        -173.97550
   94 Torsion                  5     3     2    15          65.91970
   95 Torsion                  5     3     4    23          60.47030
   96 Torsion                  5     6     7     8         -62.44152
   97 Torsion                  5     6     7    20          51.67113
   98 Torsion                  5     6     7    21         174.77166
   99 Torsion                  6     5     3    16         -70.35258
  100 Torsion                  6     5    10    22         -59.45350
  101 Torsion                  6     7     8    24         -77.15033
  102 Torsion                  6     9     1    12          57.71865
  103 Torsion                  6     9     1    14         177.65785
  104 Torsion                  7     6     5    10          75.67472
  105 Torsion                  7     6     5    17         -44.90502
  106 Torsion                  8     7     6     9         178.20820
  107 Torsion                  8     7     6    13          61.60786
  108 Torsion                  9     1     2    11         179.32073
  109 Torsion                  9     1     2    15         -64.44364
  110 Torsion                  9     1    12    18          70.02767
  111 Torsion                  9     6     5    10        -169.01006
  112 Torsion                  9     6     5    17          70.41020
  113 Torsion                  9     6     7    20         -67.67915
  114 Torsion                  9     6     7    21          55.42138
  115 Torsion                 10     5     3    16          46.87527
  116 Torsion                 10     5     6    13         -49.43989
  117 Torsion                 11     2     1    12          62.24350
  118 Torsion                 11     2     1    14         -64.72532
  119 Torsion                 11     2     3    16         -49.66384
  120 Torsion                 12     1     2    15         178.47913
  121 Torsion                 13     6     5    17        -170.01963
  122 Torsion                 13     6     7    20         175.72051
  123 Torsion                 13     6     7    21         -61.17896
  124 Torsion                 14     1     2    15          51.51031
  125 Torsion                 14     1    12    18         -43.55074
  126 Torsion                 15     2     3    16        -169.76864
  127 Torsion                 15     2    11    19          81.50738
  128 Torsion                 16     3     4    23         -62.53482
  129 Torsion                 16     3     5    17         164.39090
  130 Torsion                 17     5    10    22          63.12153
  131 Torsion                 20     7     8    24         163.09184
  132 Torsion                 21     7     8    24          46.14606
 
 
            XYZ format geometry
            -------------------
    24
 geometry
 C                    -1.46614374     1.14413858     0.20689570
 C                    -0.06510930     1.71491488     0.52712986
 C                     1.01933089     0.89126609    -0.19986268
 O                     2.25401338     1.41946224     0.29828989
 C                     0.87513838    -0.59435448     0.19710210
 C                    -0.56583764    -1.09462824    -0.06928912
 C                    -0.82112322    -2.47886066     0.54712217
 O                     0.06386940    -3.42368039    -0.07247265
 O                    -1.53043439    -0.23978429     0.58956816
 O                     1.77429411    -1.29692080    -0.66694045
 O                    -0.08269174     3.07603064     0.10483880
 O                    -1.65085943     1.21049323    -1.19224803
 H                    -0.77633582    -1.08237864    -1.16403359
 H                    -2.29577190     1.60717689     0.77762912
 H                     0.11081637     1.70600970     1.63164960
 H                     0.98273033     1.02726160    -1.30563283
 H                     1.18800405    -0.75678616     1.25239733
 H                    -2.57291061     0.98803464    -1.44274112
 H                     0.84816559     3.39401872    -0.00711751
 H                    -0.54330141    -2.52293147     1.61843716
 H                    -1.87371241    -2.79051208     0.43516957
 H                     1.70556500    -2.27590925    -0.48351761
 H                     3.00730502     0.91342327    -0.08895327
 H                    -0.26361714    -3.66706931    -0.96616074
 
 ==============================================================================
                                internuclear distances
 ------------------------------------------------------------------------------
       center one      |      center two      | atomic units |  angstroms
 ------------------------------------------------------------------------------
    2 C                |   1 C                |     2.92220  |     1.54636
    3 C                |   2 C                |     2.91712  |     1.54367
    4 O                |   3 C                |     2.70672  |     1.43234
    5 C                |   3 C                |     2.91866  |     1.54449
    6 C                |   5 C                |     2.92612  |     1.54843
    7 C                |   6 C                |     2.90381  |     1.53663
    8 O                |   7 C                |     2.71213  |     1.43520
    9 O                |   1 C                |     2.71609  |     1.43729
    9 O                |   6 C                |     2.73541  |     1.44751
   10 O                |   5 C                |     2.70478  |     1.43131
   11 O                |   2 C                |     2.69329  |     1.42523
   12 O                |   1 C                |     2.66989  |     1.41284
   13 H                |   6 C                |     2.10679  |     1.11487
   14 H                |   1 C                |     2.09446  |     1.10834
   15 H                |   2 C                |     2.11362  |     1.11848
   16 H                |   3 C                |     2.10648  |     1.11470
   17 H                |   5 C                |     2.10254  |     1.11262
   18 H                |  12 O                |     1.85387  |     0.98103
   19 H                |  11 O                |     1.87087  |     0.99002
   20 H                |   7 C                |     2.09312  |     1.10763
   21 H                |   7 C                |     2.08522  |     1.10345
   22 H                |  10 O                |     1.88669  |     0.99839
   23 H                |   4 O                |     1.86450  |     0.98665
   24 H                |   8 O                |     1.85652  |     0.98243
 ------------------------------------------------------------------------------
                         number of included internuclear distances:         24
 ==============================================================================



 ==============================================================================
                                 internuclear angles
 ------------------------------------------------------------------------------
        center 1       |       center 2       |       center 3       |  degrees
 ------------------------------------------------------------------------------
    2 C                |   1 C                |   9 O                |   109.93
    2 C                |   1 C                |  12 O                |   107.83
    2 C                |   1 C                |  14 H                |   114.67
    9 O                |   1 C                |  12 O                |   107.64
    9 O                |   1 C                |  14 H                |   103.40
   12 O                |   1 C                |  14 H                |   113.11
    1 C                |   2 C                |   3 C                |   110.00
    1 C                |   2 C                |  11 O                |   106.26
    1 C                |   2 C                |  15 H                |   110.13
    3 C                |   2 C                |  11 O                |   112.25
    3 C                |   2 C                |  15 H                |   110.51
   11 O                |   2 C                |  15 H                |   107.59
    2 C                |   3 C                |   4 O                |   104.18
    2 C                |   3 C                |   5 C                |   109.06
    2 C                |   3 C                |  16 H                |   112.27
    4 O                |   3 C                |   5 C                |   110.23
    4 O                |   3 C                |  16 H                |   109.17
    5 C                |   3 C                |  16 H                |   111.67
    3 C                |   4 O                |  23 H                |   109.42
    3 C                |   5 C                |   6 C                |   110.70
    3 C                |   5 C                |  10 O                |   104.97
    3 C                |   5 C                |  17 H                |   110.97
    6 C                |   5 C                |  10 O                |   108.79
    6 C                |   5 C                |  17 H                |   112.19
   10 O                |   5 C                |  17 H                |   108.92
    5 C                |   6 C                |   7 C                |   112.13
    5 C                |   6 C                |   9 O                |   110.55
    5 C                |   6 C                |  13 H                |   109.94
    7 C                |   6 C                |   9 O                |   103.81
    7 C                |   6 C                |  13 H                |   111.87
    9 O                |   6 C                |  13 H                |   108.34
    6 C                |   7 C                |   8 O                |   108.51
    6 C                |   7 C                |  20 H                |   112.47
    6 C                |   7 C                |  21 H                |   111.85
    8 O                |   7 C                |  20 H                |   103.69
    8 O                |   7 C                |  21 H                |   111.01
   20 H                |   7 C                |  21 H                |   109.04
    7 C                |   8 O                |  24 H                |   110.50
    1 C                |   9 O                |   6 C                |   114.69
    5 C                |  10 O                |  22 H                |   109.10
    2 C                |  11 O                |  19 H                |   109.19
    1 C                |  12 O                |  18 H                |   111.41
 ------------------------------------------------------------------------------
                            number of included internuclear angles:         42
 ==============================================================================



  warning:::::::::::::: from_environment
  NWCHEM_BASIS_LIBRARY set to: <
 /lrz/sys/applications/nwchem/6.3/impi/data/libraries>
  but file does not exist !
  using .nwchemrc or compiled library
  library name resolved from: .nwchemrc
  library file name is: </lrz/sys/applications/nwchem/6.3/impi/data/libraries/>
  


 Summary of "ao basis" -> "" (cartesian)
 ------------------------------------------------------------------------------
       Tag                 Description            Shells   Functions and Types
 ---------------- ------------------------------  ------  ---------------------
 *                           6-31g                    on all atoms 


 
 
                           NWChem Geometry Optimization
                           ----------------------------
 
 
 
 
                               Dextran Optimization
 
 
 maximum gradient threshold         (gmax) =   0.000450
 rms gradient threshold             (grms) =   0.000300
 maximum cartesian step threshold   (xmax) =   0.001800
 rms cartesian step threshold       (xrms) =   0.001200
 fixed trust radius                (trust) =   0.300000
 maximum step size to saddle      (sadstp) =   0.100000
 energy precision                  (eprec) =   5.0D-06
 maximum number of steps          (nptopt) =   20
 initial hessian option           (inhess) =    0
 line search option               (linopt) =    1
 hessian update option            (modupd) =    1
 saddle point option              (modsad) =    0
 initial eigen-mode to follow     (moddir) =    0
 initial variable to follow       (vardir) =    0
 follow first negative mode     (firstneg) =    T
 apply conjugacy                    (opcg) =    F
 source of zmatrix                         =   autoz   


          -------------------
          Energy Minimization
          -------------------

 
 Names of Z-matrix variables 
    1              2              3              4              5         
    6              7              8              9             10         
   11             12             13             14             15         
   16             17             18             19             20         
   21             22             23             24             25         
   26             27             28             29             30         
   31             32             33             34             35         
   36             37             38             39             40         
   41             42             43             44             45         
   46             47             48             49             50         
   51             52             53             54             55         
   56             57             58             59             60         
   61             62             63             64             65         
   66             67             68             69             70         
   71             72             73             74             75         
   76             77             78             79             80         
   81             82             83             84             85         
   86             87             88             89             90         
   91             92             93             94             95         
   96             97             98             99            100         
  101            102            103            104            105         
  106            107            108            109            110         
  111            112            113            114            115         
  116            117            118            119            120         
  121            122            123            124            125         
  126            127            128            129            130         
  131            132         
 
 Variables with the same non-blank name are constrained to be equal
 
 
 Using diagonal initial Hessian 
 Scaling for Hessian diagonals: bonds = 1.00  angles = 0.25  torsions = 0.10

          --------
          Step   0
          --------
 
 
                         Geometry "geometry" -> "geometry"
                         ---------------------------------
 
 Output coordinates in angstroms (scale by  1.889725989 to convert to a.u.)
 
  No.       Tag          Charge          X              Y              Z
 ---- ---------------- ---------- -------------- -------------- --------------
    1 C                    6.0000    -1.46614374     1.14413858     0.20689570
    2 C                    6.0000    -0.06510930     1.71491488     0.52712986
    3 C                    6.0000     1.01933089     0.89126609    -0.19986268
    4 O                    8.0000     2.25401338     1.41946224     0.29828989
    5 C                    6.0000     0.87513838    -0.59435448     0.19710210
    6 C                    6.0000    -0.56583764    -1.09462824    -0.06928912
    7 C                    6.0000    -0.82112322    -2.47886066     0.54712217
    8 O                    8.0000     0.06386940    -3.42368039    -0.07247265
    9 O                    8.0000    -1.53043439    -0.23978429     0.58956816
   10 O                    8.0000     1.77429411    -1.29692080    -0.66694045
   11 O                    8.0000    -0.08269174     3.07603064     0.10483880
   12 O                    8.0000    -1.65085943     1.21049323    -1.19224803
   13 H                    1.0000    -0.77633582    -1.08237864    -1.16403359
   14 H                    1.0000    -2.29577190     1.60717689     0.77762912
   15 H                    1.0000     0.11081637     1.70600970     1.63164960
   16 H                    1.0000     0.98273033     1.02726160    -1.30563283
   17 H                    1.0000     1.18800405    -0.75678616     1.25239733
   18 H                    1.0000    -2.57291061     0.98803464    -1.44274112
   19 H                    1.0000     0.84816559     3.39401872    -0.00711751
   20 H                    1.0000    -0.54330141    -2.52293147     1.61843716
   21 H                    1.0000    -1.87371241    -2.79051208     0.43516957
   22 H                    1.0000     1.70556500    -2.27590925    -0.48351761
   23 H                    1.0000     3.00730502     0.91342327    -0.08895327
   24 H                    1.0000    -0.26361714    -3.66706931    -0.96616074
 
      Atomic Mass 
      ----------- 
 
      C                 12.000000
      O                 15.994910
      H                  1.007825
 

 Effective nuclear repulsion energy (a.u.)     831.0546105050

            Nuclear Dipole moment (a.u.) 
            ----------------------------
        X                 Y               Z
 ---------------- ---------------- ----------------
    -0.0000000000     0.0000000000    -0.0000000000
 
 
                                 NWChem DFT Module
                                 -----------------
 
 
                               Dextran Optimization
 
 
                      Basis "ao basis" -> "ao basis" (cartesian)
                      -----
  C (Carbon)
  ----------
            Exponent  Coefficients 
       -------------- ---------------------------------------------------------
  1 S  3.04752490E+03  0.001835
  1 S  4.57369510E+02  0.014037
  1 S  1.03948690E+02  0.068843
  1 S  2.92101550E+01  0.232184
  1 S  9.28666300E+00  0.467941
  1 S  3.16392700E+00  0.362312
 
  2 S  7.86827240E+00 -0.119332
  2 S  1.88128850E+00 -0.160854
  2 S  5.44249300E-01  1.143456
 
  3 P  7.86827240E+00  0.068999
  3 P  1.88128850E+00  0.316424
  3 P  5.44249300E-01  0.744308
 
  4 S  1.68714400E-01  1.000000
 
  5 P  1.68714400E-01  1.000000
 
  O (Oxygen)
  ----------
            Exponent  Coefficients 
       -------------- ---------------------------------------------------------
  1 S  5.48467170E+03  0.001831
  1 S  8.25234950E+02  0.013950
  1 S  1.88046960E+02  0.068445
  1 S  5.29645000E+01  0.232714
  1 S  1.68975700E+01  0.470193
  1 S  5.79963530E+00  0.358521
 
  2 S  1.55396160E+01 -0.110778
  2 S  3.59993360E+00 -0.148026
  2 S  1.01376180E+00  1.130767
 
  3 P  1.55396160E+01  0.070874
  3 P  3.59993360E+00  0.339753
  3 P  1.01376180E+00  0.727159
 
  4 S  2.70005800E-01  1.000000
 
  5 P  2.70005800E-01  1.000000
 
  H (Hydrogen)
  ------------
            Exponent  Coefficients 
       -------------- ---------------------------------------------------------
  1 S  1.87311370E+01  0.033495
  1 S  2.82539370E+00  0.234727
  1 S  6.40121700E-01  0.813757
 
  2 S  1.61277800E-01  1.000000
 


 Summary of "ao basis" -> "ao basis" (cartesian)
 ------------------------------------------------------------------------------
       Tag                 Description            Shells   Functions and Types
 ---------------- ------------------------------  ------  ---------------------
 C                           6-31g                   5        9   3s2p
 O                           6-31g                   5        9   3s2p
 H                           6-31g                   2        2   2s


  Caching 1-el integrals 
 
            General Information
            -------------------
          SCF calculation type: DFT
          Wavefunction type:  closed shell.
          No. of atoms     :    24
          No. of electrons :    96
           Alpha electrons :    48
            Beta electrons :    48
          Charge           :     0
          Spin multiplicity:     1
          Use of symmetry is: off; symmetry adaption is: off
          Maximum number of iterations:  30
          AO basis - number of functions:   132
                     number of shells:    84
          Convergence on energy requested: 1.00D-06
          Convergence on density requested: 1.00D-05
          Convergence on gradient requested: 5.00D-04
 
              XC Information
              --------------
                         B3LYP Method XC Potential
                     Hartree-Fock (Exact) Exchange  0.200          
                        Slater Exchange Functional  0.800 local    
                    Becke 1988 Exchange Functional  0.720 non-local
              Lee-Yang-Parr Correlation Functional  0.810          
                  VWN I RPA Correlation Functional  0.190 local    
 
             Grid Information
             ----------------
          Grid used for XC integration:  xfine     
          Radial quadrature: Mura-Knowles        
          Angular quadrature: Lebedev. 
          Tag              B.-S. Rad. Rad. Pts. Rad. Cut. Ang. Pts.
          ---              ---------- --------- --------- ---------
          C                   0.70      100          14.0      1454
          O                   0.60      100          14.0      1454
          H                   0.35      100          14.0      1202
          Grid pruning is: on 
          Number of quadrature shells:  2400
          Spatial weights used:  Erf1
 
          Convergence Information
          -----------------------
          Convergence aids based upon iterative change in 
          total energy or number of iterations. 
          Levelshifting, if invoked, occurs when the 
          HOMO/LUMO gap drops below (HL_TOL): 1.00D-02
          DIIS, if invoked, will attempt to extrapolate 
          using up to (NFOCK): 10 stored Fock matrices.

                    Damping( 0%)  Levelshifting(0.5)       DIIS
                  --------------- ------------------- ---------------
          dE  on:    start            ASAP                start   
          dE off:    2 iters         30 iters            30 iters 

 
      Screening Tolerance Information
      -------------------------------
          Density screening/tol_rho: 1.00D-10
          AO Gaussian exp screening on grid/accAOfunc:  14
          CD Gaussian exp screening on grid/accCDfunc:  20
          XC Gaussian exp screening on grid/accXCfunc:  20
          Schwarz screening/accCoul: 1.00D-08

 
      Superposition of Atomic Density Guess
      -------------------------------------
 
 Sum of atomic energies:        -680.46642875
 
      Non-variational initial energy
      ------------------------------

 Total energy =    -686.349918
 1-e energy   =   -2584.270714
 2-e energy   =    1066.866186
 HOMO         =      -0.287098
 LUMO         =       0.081085
 
   Time after variat. SCF:      1.0
   Time prior to 1st pass:      1.0

 Integral file          = ./dextran.aoints.0
 Record size in doubles =    65536    No. of integs per rec  =    43688
 Max. records in memory =      151    Max. records in file   = 23749999
 No. of bits per label  =        8    No. of bits per value  =       64


 #quartets = 3.853D+06 #integrals = 2.335D+07 #direct =  0.0% #cached =100.0%


File balance: exchanges=    15  moved=    47  time=   0.0


 Grid_pts file          = ./dextran.gridpts.0
 Record size in doubles =  12289        No. of grid_pts per rec  =   3070
 Max. records in memory =    158        Max. recs in file   = 126656358


           Memory utilization after 1st SCF pass: 
           Heap Space remaining (MW):        1.26             1257524
          Stack Space remaining (MW):       13.11            13105701

   convergence    iter        energy       DeltaE   RMS-Dens  Diis-err    time
 ---------------- ----- ----------------- --------- --------- ---------  ------
 d= 0,ls=0.0,diis     1   -686.6325602945 -1.52D+03  2.22D-02  2.44D+00    13.8
 Grid integrated density:      96.000001030656
 Requested integration accuracy:   0.10E-07
 d= 0,ls=0.0,diis     2   -686.5036524686  1.29D-01  1.41D-02  4.13D+00    20.3
 d= 0,ls=0.0,diis     3   -686.9168786934 -4.13D-01  2.05D-03  9.98D-02    26.7
 d= 0,ls=0.0,diis     4   -686.9256118776 -8.73D-03  5.62D-04  9.27D-03    33.2
 d= 0,ls=0.0,diis     5   -686.9265739031 -9.62D-04  1.69D-04  7.09D-04    41.6
  Resetting Diis
 d= 0,ls=0.0,diis     6   -686.9266307813 -5.69D-05  7.22D-05  1.06D-04    50.0
 d= 0,ls=0.0,diis     7   -686.9266417911 -1.10D-05  2.34D-05  2.44D-06    58.5
 d= 0,ls=0.0,diis     8   -686.9266413801  4.11D-07  1.40D-05  6.99D-06    66.9
 d= 0,ls=0.0,diis     9   -686.9266420478 -6.68D-07  1.53D-06  2.91D-08    75.4


         Total DFT energy =     -686.926642047760
      One electron energy =    -2592.123349082271
           Coulomb energy =     1162.803398700817
    Exchange-Corr. energy =      -88.661302171263
 Nuclear repulsion energy =      831.054610504957

 Numeric. integr. density =       95.999999356246

     Total iterative time =     74.4s


 
                       DFT Final Molecular Orbital Analysis
                       ------------------------------------
 
 Vector   12  Occ=2.000000D+00  E=-1.024008D+01
              MO Center=  1.0D+00,  8.9D-01, -2.0D-01, r^2= 3.7D-02
   Bfn.  Coefficient  Atom+Function         Bfn.  Coefficient  Atom+Function  
  ----- ------------  ---------------      ----- ------------  ---------------
    19      0.993813   3 C  s         
 
 Vector   13  Occ=2.000000D+00  E=-1.085746D+00
              MO Center= -1.4D+00,  4.8D-01, -1.8D-01, r^2= 2.0D+00
   Bfn.  Coefficient  Atom+Function         Bfn.  Coefficient  Atom+Function  
  ----- ------------  ---------------      ----- ------------  ---------------
    78      0.310217   9 O  s                74      0.284698   9 O  s         
   105      0.281410  12 O  s               101      0.275347  12 O  s         
     2      0.187147   1 C  s         
 
 Vector   14  Occ=2.000000D+00  E=-1.054255D+00
              MO Center= -7.7D-02, -2.9D+00, -1.7D-01, r^2= 2.0D+00
   Bfn.  Coefficient  Atom+Function         Bfn.  Coefficient  Atom+Function  
  ----- ------------  ---------------      ----- ------------  ---------------
    69      0.434917   8 O  s                65      0.413444   8 O  s         
    64     -0.190198   8 O  s         
 
 Vector   15  Occ=2.000000D+00  E=-1.038994D+00
              MO Center=  1.5D+00,  8.2D-01,  2.4D-02, r^2= 3.6D+00
   Bfn.  Coefficient  Atom+Function         Bfn.  Coefficient  Atom+Function  
  ----- ------------  ---------------      ----- ------------  ---------------
    33      0.361650   4 O  s                29      0.338334   4 O  s         
    87      0.183931  10 O  s                83      0.169359  10 O  s         
    28     -0.156492   4 O  s                96      0.156298  11 O  s         
 
 Vector   16  Occ=2.000000D+00  E=-1.020939D+00
              MO Center=  4.6D-01,  2.8D-01, -1.6D-01, r^2= 6.2D+00
   Bfn.  Coefficient  Atom+Function         Bfn.  Coefficient  Atom+Function  
  ----- ------------  ---------------      ----- ------------  ---------------
    87      0.309908  10 O  s                83      0.281203  10 O  s         
    96     -0.276091  11 O  s                92     -0.250697  11 O  s         
    78      0.166129   9 O  s         
 
 Vector   17  Occ=2.000000D+00  E=-1.009046D+00
              MO Center= -2.9D-01,  4.6D-02, -3.0D-01, r^2= 4.9D+00
   Bfn.  Coefficient  Atom+Function         Bfn.  Coefficient  Atom+Function  
  ----- ------------  ---------------      ----- ------------  ---------------
    78      0.298884   9 O  s               105     -0.276434  12 O  s         
    87     -0.261845  10 O  s               101     -0.256134  12 O  s         
    74      0.251713   9 O  s                83     -0.239949  10 O  s         
    33      0.154365   4 O  s         
 
 Vector   18  Occ=2.000000D+00  E=-1.006207D+00
              MO Center=  2.9D-01,  1.8D+00, -4.8D-02, r^2= 4.4D+00
   Bfn.  Coefficient  Atom+Function         Bfn.  Coefficient  Atom+Function  
  ----- ------------  ---------------      ----- ------------  ---------------
    96      0.338975  11 O  s                92      0.313095  11 O  s         
    33     -0.248647   4 O  s                29     -0.227909   4 O  s         
   105     -0.204431  12 O  s               101     -0.186527  12 O  s         
 
 Vector   19  Occ=2.000000D+00  E=-7.847819D-01
              MO Center= -1.7D-01, -9.0D-01,  1.1D-01, r^2= 3.4D+00
   Bfn.  Coefficient  Atom+Function         Bfn.  Coefficient  Atom+Function  
  ----- ------------  ---------------      ----- ------------  ---------------
    47      0.237578   6 C  s                51      0.212842   6 C  s         
    38      0.180998   5 C  s                56      0.167650   7 C  s         
    87     -0.158619  10 O  s                42      0.154505   5 C  s         
    78     -0.153367   9 O  s         
 
 Vector   20  Occ=2.000000D+00  E=-7.748985D-01
              MO Center= -1.9D-02,  8.4D-01,  1.6D-01, r^2= 3.8D+00
   Bfn.  Coefficient  Atom+Function         Bfn.  Coefficient  Atom+Function  
  ----- ------------  ---------------      ----- ------------  ---------------
    11      0.219479   2 C  s                20      0.192012   3 C  s         
    24      0.183692   3 C  s                15      0.174719   2 C  s         
    96     -0.159476  11 O  s                 2      0.158332   1 C  s         
 
 Vector   21  Occ=2.000000D+00  E=-6.991149D-01
              MO Center= -4.2D-01, -8.2D-01,  2.0D-01, r^2= 6.2D+00
   Bfn.  Coefficient  Atom+Function         Bfn.  Coefficient  Atom+Function  
  ----- ------------  ---------------      ----- ------------  ---------------
    60      0.259266   7 C  s                56      0.248165   7 C  s         
     2      0.166335   1 C  s                 6      0.158686   1 C  s         
 
 Vector   22  Occ=2.000000D+00  E=-6.447196D-01
              MO Center=  2.6D-01,  3.8D-01,  2.9D-02, r^2= 4.8D+00
   Bfn.  Coefficient  Atom+Function         Bfn.  Coefficient  Atom+Function  
  ----- ------------  ---------------      ----- ------------  ---------------
    42      0.225584   5 C  s                 6      0.204854   1 C  s         
    24     -0.190243   3 C  s                38      0.182640   5 C  s         
    30      0.177060   4 O  px                2      0.174284   1 C  s         
    20     -0.167149   3 C  s         
 
 Vector   23  Occ=2.000000D+00  E=-6.321279D-01
              MO Center= -2.0D-01, -6.2D-01,  1.5D-01, r^2= 5.9D+00
   Bfn.  Coefficient  Atom+Function         Bfn.  Coefficient  Atom+Function  
  ----- ------------  ---------------      ----- ------------  ---------------
    51      0.243797   6 C  s                47      0.184775   6 C  s         
    60     -0.169813   7 C  s                68     -0.159820   8 O  pz        
    15      0.154303   2 C  s         
 
 Vector   24  Occ=2.000000D+00  E=-5.872522D-01
              MO Center= -3.4D-01,  7.9D-01, -1.5D-01, r^2= 4.5D+00
   Bfn.  Coefficient  Atom+Function         Bfn.  Coefficient  Atom+Function  
  ----- ------------  ---------------      ----- ------------  ---------------
    15      0.206015   2 C  s               104     -0.199328  12 O  pz        
   102     -0.186864  12 O  px               24     -0.170863   3 C  s         
     5      0.152098   1 C  pz        
 
 Vector   25  Occ=2.000000D+00  E=-5.496080D-01
              MO Center= -3.0D-01,  1.5D-01,  4.0D-03, r^2= 5.7D+00
   Bfn.  Coefficient  Atom+Function         Bfn.  Coefficient  Atom+Function  
  ----- ------------  ---------------      ----- ------------  ---------------
    30      0.173922   4 O  px               76     -0.163641   9 O  py        
     3      0.156515   1 C  px              102      0.153540  12 O  px        
     5     -0.151677   1 C  pz        
 
 Vector   26  Occ=2.000000D+00  E=-5.450415D-01
              MO Center= -3.2D-01, -9.5D-01, -2.0D-02, r^2= 6.2D+00
   Bfn.  Coefficient  Atom+Function         Bfn.  Coefficient  Atom+Function  
  ----- ------------  ---------------      ----- ------------  ---------------
    68      0.194151   8 O  pz               85     -0.189957  10 O  py        
    57      0.184418   7 C  px        
 
 Vector   27  Occ=2.000000D+00  E=-5.315089D-01
              MO Center=  1.8D-01, -5.4D-01, -6.2D-02, r^2= 6.1D+00
   Bfn.  Coefficient  Atom+Function         Bfn.  Coefficient  Atom+Function  
  ----- ------------  ---------------      ----- ------------  ---------------
    68      0.204590   8 O  pz               30      0.195992   4 O  px        
    41     -0.183359   5 C  pz              104     -0.157119  12 O  pz        
 
 Vector   28  Occ=2.000000D+00  E=-5.090321D-01
              MO Center= -2.2D-01,  3.4D-01,  1.9D-01, r^2= 7.2D+00
   Bfn.  Coefficient  Atom+Function         Bfn.  Coefficient  Atom+Function  
  ----- ------------  ---------------      ----- ------------  ---------------
    13      0.189563   2 C  py               94     -0.188004  11 O  py        
    57      0.177045   7 C  px               93     -0.172597  11 O  px        
 
 Vector   29  Occ=2.000000D+00  E=-4.995767D-01
              MO Center=  2.3D-01, -5.9D-03, -1.0D-01, r^2= 5.7D+00
   Bfn.  Coefficient  Atom+Function         Bfn.  Coefficient  Atom+Function  
  ----- ------------  ---------------      ----- ------------  ---------------
    85      0.189923  10 O  py               30     -0.162774   4 O  px        
    23      0.159298   3 C  pz        
 
 Vector   30  Occ=2.000000D+00  E=-4.674889D-01
              MO Center= -2.8D-01,  4.2D-01,  2.1D-01, r^2= 5.6D+00
   Bfn.  Coefficient  Atom+Function         Bfn.  Coefficient  Atom+Function  
  ----- ------------  ---------------      ----- ------------  ---------------
    76      0.234171   9 O  py                4     -0.212739   1 C  py        
    94     -0.207657  11 O  py               40     -0.172202   5 C  py        
    14     -0.163040   2 C  pz        
 
 Vector   31  Occ=2.000000D+00  E=-4.603137D-01
              MO Center=  5.6D-01, -3.1D-01,  4.9D-02, r^2= 5.5D+00
   Bfn.  Coefficient  Atom+Function         Bfn.  Coefficient  Atom+Function  
  ----- ------------  ---------------      ----- ------------  ---------------
    85      0.255189  10 O  py               40     -0.183363   5 C  py        
    41     -0.180387   5 C  pz               93      0.156526  11 O  px        
    84     -0.150431  10 O  px        
 
 Vector   32  Occ=2.000000D+00  E=-4.498397D-01
              MO Center= -1.1D-01, -1.3D+00,  3.2D-01, r^2= 5.1D+00
   Bfn.  Coefficient  Atom+Function         Bfn.  Coefficient  Atom+Function  
  ----- ------------  ---------------      ----- ------------  ---------------
    59      0.279048   7 C  pz               49      0.233028   6 C  py        
    67     -0.220876   8 O  py               39     -0.154215   5 C  px        
 
 Vector   33  Occ=2.000000D+00  E=-4.377661D-01
              MO Center= -2.6D-01,  7.9D-01,  1.9D-01, r^2= 5.6D+00
   Bfn.  Coefficient  Atom+Function         Bfn.  Coefficient  Atom+Function  
  ----- ------------  ---------------      ----- ------------  ---------------
     3      0.240756   1 C  px               12     -0.231888   2 C  px        
    30     -0.225687   4 O  px              104     -0.195872  12 O  pz        
    75      0.167182   9 O  px        
 
 Vector   34  Occ=2.000000D+00  E=-4.237770D-01
              MO Center= -7.7D-02,  4.5D-02,  2.2D-01, r^2= 6.8D+00
   Bfn.  Coefficient  Atom+Function         Bfn.  Coefficient  Atom+Function  
  ----- ------------  ---------------      ----- ------------  ---------------
    58      0.183185   7 C  py               21      0.179554   3 C  px        
    14      0.169345   2 C  pz               31     -0.165210   4 O  py        
    66      0.165454   8 O  px               76      0.150555   9 O  py        
 
 Vector   35  Occ=2.000000D+00  E=-4.116839D-01
              MO Center= -8.9D-02, -6.8D-01,  4.9D-02, r^2= 5.2D+00
   Bfn.  Coefficient  Atom+Function         Bfn.  Coefficient  Atom+Function  
  ----- ------------  ---------------      ----- ------------  ---------------
    39      0.198218   5 C  px               48     -0.180342   6 C  px        
    86      0.159200  10 O  pz               66      0.158329   8 O  px        
    50     -0.153112   6 C  pz        
 
 Vector   36  Occ=2.000000D+00  E=-4.069204D-01
              MO Center=  5.9D-01,  5.3D-01,  1.5D-01, r^2= 4.8D+00
   Bfn.  Coefficient  Atom+Function         Bfn.  Coefficient  Atom+Function  
  ----- ------------  ---------------      ----- ------------  ---------------
    23     -0.249608   3 C  pz               14      0.230851   2 C  pz        
    32     -0.200150   4 O  pz              115      0.150389  16 H  s         
 
 Vector   37  Occ=2.000000D+00  E=-3.846985D-01
              MO Center= -9.0D-01, -1.3D-01, -3.3D-01, r^2= 5.0D+00
   Bfn.  Coefficient  Atom+Function         Bfn.  Coefficient  Atom+Function  
  ----- ------------  ---------------      ----- ------------  ---------------
   102     -0.245403  12 O  px               75      0.232423   9 O  px        
   105     -0.220453  12 O  s                77     -0.192596   9 O  pz        
    78     -0.171914   9 O  s                50      0.167587   6 C  pz        
    79      0.161399   9 O  px              106     -0.160752  12 O  px        
   103     -0.158722  12 O  py              104      0.153744  12 O  pz        
 
 Vector   38  Occ=2.000000D+00  E=-3.609191D-01
              MO Center=  1.9D-01, -9.7D-01, -3.2D-01, r^2= 6.5D+00
   Bfn.  Coefficient  Atom+Function         Bfn.  Coefficient  Atom+Function  
  ----- ------------  ---------------      ----- ------------  ---------------
    84      0.266832  10 O  px               66     -0.241737   8 O  px        
    88      0.188665  10 O  px               70     -0.178461   8 O  px        
   102      0.174668  12 O  px               87      0.167692  10 O  s         
    24     -0.155311   3 C  s                86     -0.155987  10 O  pz        
 
 Vector   39  Occ=2.000000D+00  E=-3.434257D-01
              MO Center=  1.2D+00,  1.6D+00,  1.8D-01, r^2= 4.1D+00
   Bfn.  Coefficient  Atom+Function         Bfn.  Coefficient  Atom+Function  
  ----- ------------  ---------------      ----- ------------  ---------------
    31      0.367207   4 O  py               35      0.255810   4 O  py        
    32      0.228828   4 O  pz               93     -0.224605  11 O  px        
    33      0.191106   4 O  s                94      0.164922  11 O  py        
    36      0.158151   4 O  pz               97     -0.152229  11 O  px        
 
 Vector   40  Occ=2.000000D+00  E=-3.400892D-01
              MO Center=  1.2D-01, -1.7D+00,  6.8D-02, r^2= 6.2D+00
   Bfn.  Coefficient  Atom+Function         Bfn.  Coefficient  Atom+Function  
  ----- ------------  ---------------      ----- ------------  ---------------
    66      0.297922   8 O  px               70      0.211780   8 O  px        
    69      0.184235   8 O  s                57     -0.176675   7 C  px        
    84      0.168027  10 O  px               68      0.156565   8 O  pz        
 
 Vector   41  Occ=2.000000D+00  E=-3.245581D-01
              MO Center= -1.2D-01,  1.4D-01, -1.0D-02, r^2= 7.8D+00
   Bfn.  Coefficient  Atom+Function         Bfn.  Coefficient  Atom+Function  
  ----- ------------  ---------------      ----- ------------  ---------------
    15      0.232814   2 C  s                67     -0.232656   8 O  py        
    93     -0.209445  11 O  px                6     -0.195255   1 C  s         
    75     -0.175915   9 O  px               71     -0.173047   8 O  py        
    94      0.168074  11 O  py        
 
 Vector   42  Occ=2.000000D+00  E=-3.067346D-01
              MO Center= -5.1D-01,  6.2D-01, -1.5D-01, r^2= 6.1D+00
   Bfn.  Coefficient  Atom+Function         Bfn.  Coefficient  Atom+Function  
  ----- ------------  ---------------      ----- ------------  ---------------
   102      0.210023  12 O  px                3     -0.183157   1 C  px        
    93     -0.183286  11 O  px               12      0.180348   2 C  px        
    24      0.170743   3 C  s               104     -0.168364  12 O  pz        
   103     -0.162666  12 O  py               78     -0.160899   9 O  s         
   112      0.160031  14 H  s                42     -0.157919   5 C  s         
 
 Vector   43  Occ=2.000000D+00  E=-3.021391D-01
              MO Center= -1.0D+00,  5.3D-01, -4.3D-01, r^2= 4.9D+00
   Bfn.  Coefficient  Atom+Function         Bfn.  Coefficient  Atom+Function  
  ----- ------------  ---------------      ----- ------------  ---------------
   103      0.442443  12 O  py              107      0.325966  12 O  py        
    75      0.203529   9 O  px               76      0.188185   9 O  py        
    80      0.169686   9 O  py               12      0.168488   2 C  px        
    79      0.165368   9 O  px        
 
 Vector   44  Occ=2.000000D+00  E=-2.942042D-01
              MO Center=  4.7D-01, -7.4D-01, -9.1D-02, r^2= 6.6D+00
   Bfn.  Coefficient  Atom+Function         Bfn.  Coefficient  Atom+Function  
  ----- ------------  ---------------      ----- ------------  ---------------
    86      0.278848  10 O  pz               32      0.256963   4 O  pz        
    67     -0.255078   8 O  py               51      0.221772   6 C  s         
    90      0.204365  10 O  pz               71     -0.199682   8 O  py        
    77      0.195426   9 O  pz               36      0.187130   4 O  pz        
    66     -0.150592   8 O  px               81      0.150407   9 O  pz        
 
 Vector   45  Occ=2.000000D+00  E=-2.788124D-01
              MO Center= -3.2D-01, -2.3D-01, -1.2D-01, r^2= 5.7D+00
   Bfn.  Coefficient  Atom+Function         Bfn.  Coefficient  Atom+Function  
  ----- ------------  ---------------      ----- ------------  ---------------
    77      0.351971   9 O  pz              103     -0.278920  12 O  py        
    81      0.259460   9 O  pz               86      0.207062  10 O  pz        
   107     -0.203761  12 O  py               84      0.177150  10 O  px        
    67      0.169556   8 O  py               90      0.165518  10 O  pz        
    32     -0.160025   4 O  pz        
 
 Vector   46  Occ=2.000000D+00  E=-2.739087D-01
              MO Center=  1.0D+00,  5.1D-01,  3.5D-02, r^2= 5.1D+00
   Bfn.  Coefficient  Atom+Function         Bfn.  Coefficient  Atom+Function  
  ----- ------------  ---------------      ----- ------------  ---------------
    32      0.335716   4 O  pz               31     -0.276695   4 O  py        
    36      0.262515   4 O  pz               35     -0.214456   4 O  py        
    42     -0.198234   5 C  s                86     -0.164026  10 O  pz        
   116      0.160377  16 H  s                77      0.153703   9 O  pz        
    75      0.152545   9 O  px        
 
 Vector   47  Occ=2.000000D+00  E=-2.584474D-01
              MO Center=  3.2D-01,  1.4D+00,  8.1D-02, r^2= 5.5D+00
   Bfn.  Coefficient  Atom+Function         Bfn.  Coefficient  Atom+Function  
  ----- ------------  ---------------      ----- ------------  ---------------
    95      0.453763  11 O  pz               99      0.345757  11 O  pz        
    84     -0.242511  10 O  px               88     -0.200906  10 O  px        
    86     -0.182809  10 O  pz              114     -0.161395  15 H  s         
 
 Vector   48  Occ=2.000000D+00  E=-2.545184D-01
              MO Center=  3.1D-01,  4.0D-01,  5.9D-02, r^2= 6.2D+00
   Bfn.  Coefficient  Atom+Function         Bfn.  Coefficient  Atom+Function  
  ----- ------------  ---------------      ----- ------------  ---------------
    95      0.290080  11 O  pz               84      0.254102  10 O  px        
    75     -0.233729   9 O  px               99      0.216885  11 O  pz        
    88      0.205562  10 O  px               79     -0.191748   9 O  px        
    31     -0.180488   4 O  py               48      0.176318   6 C  px        
    39     -0.163267   5 C  px        
 
 Vector   49  Occ=0.000000D+00  E= 3.327898D-02
              MO Center= -1.7D-01, -2.6D+00, -5.5D-01, r^2= 5.4D+00
   Bfn.  Coefficient  Atom+Function         Bfn.  Coefficient  Atom+Function  
  ----- ------------  ---------------      ----- ------------  ---------------
   132      0.974603  24 H  s                69     -0.878327   8 O  s         
   126      0.372147  21 H  s                87     -0.336812  10 O  s         
   128      0.336370  22 H  s                61      0.320721   7 C  px        
    60     -0.300445   7 C  s                78      0.290928   9 O  s         
    72      0.278337   8 O  pz               62     -0.263240   7 C  py        
 
 Vector   50  Occ=0.000000D+00  E= 5.723022D-02
              MO Center= -1.9D+00,  7.7D-01, -9.4D-01, r^2= 5.4D+00
   Bfn.  Coefficient  Atom+Function         Bfn.  Coefficient  Atom+Function  
  ----- ------------  ---------------      ----- ------------  ---------------
   120      1.128190  18 H  s               105     -0.824901  12 O  s         
   112      0.480270  14 H  s               110      0.413700  13 H  s         
    51     -0.370158   6 C  s               106      0.360907  12 O  px        
   114      0.320766  15 H  s                33      0.310747   4 O  s         
     9     -0.290650   1 C  pz                6     -0.269033   1 C  s         
 
 Vector   51  Occ=0.000000D+00  E= 6.460453D-02
              MO Center=  7.7D-01,  7.0D-01, -2.5D-01, r^2= 9.9D+00
   Bfn.  Coefficient  Atom+Function         Bfn.  Coefficient  Atom+Function  
  ----- ------------  ---------------      ----- ------------  ---------------
   130      0.717660  23 H  s                33     -0.607345   4 O  s         
   122      0.563761  19 H  s                96     -0.520734  11 O  s         
   132     -0.494383  24 H  s               120      0.428160  18 H  s         
   105     -0.370672  12 O  s                69      0.294080   8 O  s         
    60      0.274960   7 C  s                78      0.265209   9 O  s         
 
 Vector   52  Occ=0.000000D+00  E= 9.063401D-02
              MO Center=  3.3D-01, -6.1D-01,  2.1D-01, r^2= 7.0D+00
   Bfn.  Coefficient  Atom+Function         Bfn.  Coefficient  Atom+Function  
  ----- ------------  ---------------      ----- ------------  ---------------
   118      0.867267  17 H  s               110     -0.695848  13 H  s         
    42     -0.609222   5 C  s               116     -0.606261  16 H  s         
   124      0.569142  20 H  s               112      0.473783  14 H  s         
    45     -0.466332   5 C  pz              114      0.465557  15 H  s         
    87     -0.404654  10 O  s                51      0.367678   6 C  s         
 
 Vector   53  Occ=0.000000D+00  E= 1.026921D-01
              MO Center=  1.1D+00,  1.3D+00,  3.8D-02, r^2= 7.9D+00
   Bfn.  Coefficient  Atom+Function         Bfn.  Coefficient  Atom+Function  
  ----- ------------  ---------------      ----- ------------  ---------------
   122      0.793129  19 H  s               130     -0.696501  23 H  s         
    96     -0.678975  11 O  s                33      0.416816   4 O  s         
   128     -0.397907  22 H  s                60      0.395217   7 C  s         
    24      0.373441   3 C  s               118     -0.360908  17 H  s         
     6     -0.348569   1 C  s               114      0.338442  15 H  s         
 
 Vector   54  Occ=0.000000D+00  E= 1.080393D-01
              MO Center=  4.6D-01, -3.2D-01,  5.7D-01, r^2= 8.4D+00
   Bfn.  Coefficient  Atom+Function         Bfn.  Coefficient  Atom+Function  
  ----- ------------  ---------------      ----- ------------  ---------------
   124     -0.779834  20 H  s               118     -0.767699  17 H  s         
    60      0.736200   7 C  s                15      0.564058   2 C  s         
   114     -0.530531  15 H  s               130     -0.531664  23 H  s         
   122     -0.495271  19 H  s                63      0.461849   7 C  pz        
    43      0.457006   5 C  px              126     -0.404552  21 H  s         
 
 Vector   55  Occ=0.000000D+00  E= 1.227262D-01
              MO Center= -6.9D-01, -1.5D+00,  6.1D-01, r^2= 7.9D+00
   Bfn.  Coefficient  Atom+Function         Bfn.  Coefficient  Atom+Function  
  ----- ------------  ---------------      ----- ------------  ---------------
    60      1.480423   7 C  s               124     -1.065248  20 H  s         
   126     -0.930511  21 H  s               132      0.536354  24 H  s         
   112      0.533488  14 H  s               114      0.512898  15 H  s         
    63      0.444292   7 C  pz                6     -0.391113   1 C  s         
    24     -0.340601   3 C  s                 8     -0.328679   1 C  py        
 
 Vector   56  Occ=0.000000D+00  E= 1.322955D-01
              MO Center= -1.6D-01, -5.7D-01,  1.2D-01, r^2= 8.4D+00
   Bfn.  Coefficient  Atom+Function         Bfn.  Coefficient  Atom+Function  
  ----- ------------  ---------------      ----- ------------  ---------------
   112      0.907368  14 H  s                 6     -0.777468   1 C  s         
   110     -0.758202  13 H  s               128     -0.590144  22 H  s         
    87      0.575881  10 O  s                51      0.549813   6 C  s         
   118     -0.471213  17 H  s                62     -0.457832   7 C  py        
    54     -0.437689   6 C  pz               53     -0.408474   6 C  py        
 
 Vector   57  Occ=0.000000D+00  E= 1.383804D-01
              MO Center= -1.3D+00, -1.1D+00,  4.1D-01, r^2= 8.1D+00
   Bfn.  Coefficient  Atom+Function         Bfn.  Coefficient  Atom+Function  
  ----- ------------  ---------------      ----- ------------  ---------------
   126      1.361091  21 H  s               112      0.959479  14 H  s         
    60     -0.816250   7 C  s                 6     -0.598008   1 C  s         
    24      0.581514   3 C  s               124     -0.581426  20 H  s         
    61      0.574301   7 C  px               63      0.572314   7 C  pz        
   116     -0.469864  16 H  s                 7      0.428622   1 C  px        
 
 Vector   58  Occ=0.000000D+00  E= 1.470653D-01
              MO Center=  9.8D-02,  1.0D+00, -1.8D-03, r^2= 9.0D+00
   Bfn.  Coefficient  Atom+Function         Bfn.  Coefficient  Atom+Function  
  ----- ------------  ---------------      ----- ------------  ---------------
   112     -0.922660  14 H  s                 6      0.871469   1 C  s         
   116     -0.824624  16 H  s                15     -0.776267   2 C  s         
   122     -0.690655  19 H  s                24      0.664965   3 C  s         
   114      0.638587  15 H  s               128     -0.585317  22 H  s         
     8      0.424239   1 C  py               17      0.365643   2 C  py        
 
 Vector   59  Occ=0.000000D+00  E= 1.547051D-01
              MO Center= -2.6D-01, -2.7D-02, -1.2D-01, r^2= 6.8D+00
   Bfn.  Coefficient  Atom+Function         Bfn.  Coefficient  Atom+Function  
  ----- ------------  ---------------      ----- ------------  ---------------
    42      0.900587   5 C  s                51      0.795920   6 C  s         
   116     -0.776557  16 H  s               110     -0.739232  13 H  s         
    60     -0.664212   7 C  s                78     -0.667147   9 O  s         
   118     -0.617433  17 H  s                15      0.581013   2 C  s         
    52     -0.579812   6 C  px              114     -0.524447  15 H  s         
 
 Vector   60  Occ=0.000000D+00  E= 1.681775D-01
              MO Center= -9.3D-02, -6.4D-01,  3.4D-02, r^2= 7.4D+00
   Bfn.  Coefficient  Atom+Function         Bfn.  Coefficient  Atom+Function  
  ----- ------------  ---------------      ----- ------------  ---------------
   110      1.194018  13 H  s                51     -0.978155   6 C  s         
    42      0.810724   5 C  s               118     -0.797005  17 H  s         
   114      0.760349  15 H  s                54      0.647073   6 C  pz        
   124      0.599771  20 H  s               126     -0.573825  21 H  s         
   116     -0.568323  16 H  s                24      0.560106   3 C  s         
 
 Vector   61  Occ=0.000000D+00  E= 1.738493D-01
              MO Center=  5.5D-02,  1.5D-01,  4.5D-01, r^2= 8.1D+00
   Bfn.  Coefficient  Atom+Function         Bfn.  Coefficient  Atom+Function  
  ----- ------------  ---------------      ----- ------------  ---------------
   114      1.219543  15 H  s                51      1.161170   6 C  s         
    18     -0.826716   2 C  pz               60     -0.787114   7 C  s         
    24     -0.711151   3 C  s                15     -0.645968   2 C  s         
   112     -0.643011  14 H  s               116      0.621796  16 H  s         
     6      0.548777   1 C  s               128      0.538513  22 H  s         
 
 Vector   62  Occ=0.000000D+00  E= 1.939225D-01
              MO Center= -3.1D-01, -8.9D-01,  1.3D-01, r^2= 7.3D+00
   Bfn.  Coefficient  Atom+Function         Bfn.  Coefficient  Atom+Function  
  ----- ------------  ---------------      ----- ------------  ---------------
    61      0.958966   7 C  px               60      0.774876   7 C  s         
     6     -0.761704   1 C  s               124     -0.592737  20 H  s         
   126      0.587182  21 H  s                25     -0.568371   3 C  px        
    24      0.564972   3 C  s                52     -0.540128   6 C  px        
   132     -0.539524  24 H  s                 9      0.503411   1 C  pz        
 
 Vector   63  Occ=0.000000D+00  E= 1.948334D-01
              MO Center= -1.6D-01,  5.0D-01,  8.8D-02, r^2= 7.2D+00
   Bfn.  Coefficient  Atom+Function         Bfn.  Coefficient  Atom+Function  
  ----- ------------  ---------------      ----- ------------  ---------------
   116      0.731097  16 H  s                42      0.715945   5 C  s         
    17      0.691149   2 C  py                7      0.650305   1 C  px        
    24     -0.618571   3 C  s                62      0.612070   7 C  py        
   122     -0.596015  19 H  s                53      0.556913   6 C  py        
   112      0.518946  14 H  s                26      0.508529   3 C  py        
 
 Vector   64  Occ=0.000000D+00  E= 2.077551D-01
              MO Center=  7.5D-01,  1.5D-01,  8.3D-02, r^2= 5.0D+00
   Bfn.  Coefficient  Atom+Function         Bfn.  Coefficient  Atom+Function  
  ----- ------------  ---------------      ----- ------------  ---------------
    25      0.974083   3 C  px               42     -0.915502   5 C  s         
   118      0.801037  17 H  s                44      0.679530   5 C  py        
   116     -0.617998  16 H  s                 6     -0.567177   1 C  s         
    34      0.515040   4 O  px               54      0.516511   6 C  pz        
   110      0.506573  13 H  s                15      0.482945   2 C  s         
 
 Vector   65  Occ=0.000000D+00  E= 2.156709D-01
              MO Center= -6.8D-01,  3.1D-01, -1.8D-03, r^2= 5.4D+00
   Bfn.  Coefficient  Atom+Function         Bfn.  Coefficient  Atom+Function  
  ----- ------------  ---------------      ----- ------------  ---------------
    15      1.305191   2 C  s                 9     -0.917745   1 C  pz        
    26     -0.577657   3 C  py               45      0.578277   5 C  pz        
   118     -0.550826  17 H  s                53      0.539538   6 C  py        
   108     -0.535027  12 O  pz               27     -0.531918   3 C  pz        
   120     -0.497680  18 H  s               105     -0.477527  12 O  s         
 
 Vector   66  Occ=0.000000D+00  E= 2.324881D-01
              MO Center=  1.3D-01,  2.7D-01,  2.8D-01, r^2= 5.4D+00
   Bfn.  Coefficient  Atom+Function         Bfn.  Coefficient  Atom+Function  
  ----- ------------  ---------------      ----- ------------  ---------------
    44     -1.185409   5 C  py               16      1.117035   2 C  px        
    51     -1.114800   6 C  s                52     -1.075370   6 C  px        
    26     -1.032545   3 C  py               43     -0.905924   5 C  px        
    60      0.900308   7 C  s                25      0.741862   3 C  px        
     7      0.672950   1 C  px                6      0.652360   1 C  s         
 
 Vector   67  Occ=0.000000D+00  E= 2.395460D-01
              MO Center= -2.5D-01, -4.5D-01,  6.5D-02, r^2= 6.6D+00
   Bfn.  Coefficient  Atom+Function         Bfn.  Coefficient  Atom+Function  
  ----- ------------  ---------------      ----- ------------  ---------------
    78      0.786147   9 O  s                54     -0.728670   6 C  pz        
    43     -0.682183   5 C  px               24      0.664915   3 C  s         
   110     -0.638964  13 H  s                17     -0.625574   2 C  py        
     8      0.595622   1 C  py                9     -0.555945   1 C  pz        
    62      0.550714   7 C  py              128      0.536926  22 H  s         
 
 Vector   68  Occ=0.000000D+00  E= 2.677381D-01
              MO Center= -8.5D-02,  2.0D-01,  2.9D-01, r^2= 4.6D+00
   Bfn.  Coefficient  Atom+Function         Bfn.  Coefficient  Atom+Function  
  ----- ------------  ---------------      ----- ------------  ---------------
     6      1.582893   1 C  s                24     -1.050927   3 C  s         
    16      1.031846   2 C  px               53     -0.967261   6 C  py        
     7      0.911672   1 C  px               44      0.903470   5 C  py        
    42      0.871979   5 C  s                27     -0.648804   3 C  pz        
    43     -0.586695   5 C  px               18      0.543204   2 C  pz        
 
 Vector   69  Occ=0.000000D+00  E= 2.708837D-01
              MO Center= -2.8D-01, -5.9D-01,  2.4D-01, r^2= 5.8D+00
   Bfn.  Coefficient  Atom+Function         Bfn.  Coefficient  Atom+Function  
  ----- ------------  ---------------      ----- ------------  ---------------
    51      1.425574   6 C  s                60     -1.262507   7 C  s         
    62     -1.006736   7 C  py               53     -0.935032   6 C  py        
    42     -0.876132   5 C  s                26     -0.770245   3 C  py        
    63      0.752484   7 C  pz               15      0.743651   2 C  s         
     6     -0.657303   1 C  s                52     -0.608977   6 C  px        
 
 Vector   70  Occ=0.000000D+00  E= 2.967723D-01
              MO Center= -6.1D-02,  2.7D-02,  2.2D-02, r^2= 4.6D+00
   Bfn.  Coefficient  Atom+Function         Bfn.  Coefficient  Atom+Function  
  ----- ------------  ---------------      ----- ------------  ---------------
    42      2.239550   5 C  s                51     -1.688997   6 C  s         
    15      1.340893   2 C  s                52     -1.202819   6 C  px        
     6     -1.094548   1 C  s                43     -1.008083   5 C  px        
    45     -0.918562   5 C  pz               16     -0.905069   2 C  px        
     7     -0.897021   1 C  px               24     -0.895667   3 C  s         
 
 Vector   71  Occ=0.000000D+00  E= 3.125653D-01
              MO Center=  9.9D-02,  8.2D-01,  2.0D-01, r^2= 3.9D+00
   Bfn.  Coefficient  Atom+Function         Bfn.  Coefficient  Atom+Function  
  ----- ------------  ---------------      ----- ------------  ---------------
    24      2.410462   3 C  s                15     -1.365191   2 C  s         
    27      1.235184   3 C  pz               17      1.010917   2 C  py        
    16     -0.972442   2 C  px               44     -0.797375   5 C  py        
     8     -0.610440   1 C  py                6      0.601095   1 C  s         
    18      0.552243   2 C  pz               42     -0.546772   5 C  s         
 
 Vector   72  Occ=0.000000D+00  E= 3.253565D-01
              MO Center= -8.8D-02,  1.3D-01,  7.6D-02, r^2= 5.8D+00
   Bfn.  Coefficient  Atom+Function         Bfn.  Coefficient  Atom+Function  
  ----- ------------  ---------------      ----- ------------  ---------------
    15      1.569359   2 C  s                42     -1.357561   5 C  s         
    26     -1.218554   3 C  py               51     -1.149742   6 C  s         
    45      1.046172   5 C  pz               54     -1.003074   6 C  pz        
    18     -0.871111   2 C  pz               62      0.864286   7 C  py        
    60      0.795796   7 C  s                43     -0.703823   5 C  px        
 
 Vector   73  Occ=0.000000D+00  E= 5.390023D-01
              MO Center= -1.2D-01, -1.1D+00,  3.0D-01, r^2= 5.0D+00
   Bfn.  Coefficient  Atom+Function         Bfn.  Coefficient  Atom+Function  
  ----- ------------  ---------------      ----- ------------  ---------------
    51      1.056820   6 C  s                61     -0.977329   7 C  px        
    52      0.929545   6 C  px               42     -0.857052   5 C  s         
    63      0.797797   7 C  pz               44      0.574956   5 C  py        
    25     -0.571789   3 C  px               53     -0.553994   6 C  py        
    60     -0.532605   7 C  s                16      0.504265   2 C  px        
 

 center of mass
 --------------
 x =   0.00498573 y =   0.03598446 z =  -0.00262721

 moments of inertia (a.u.)
 ------------------
        2462.508328761538          -0.000000000000           0.000000000001
          -0.000000000000        1298.317035032931           0.000000000000
           0.000000000001           0.000000000000        3335.110289172737
 
     Multipole analysis of the density
     ---------------------------------
 
     L   x y z        total         alpha         beta         nuclear
     -   - - -        -----         -----         ----         -------
     0   0 0 0     -0.000000    -48.000000    -48.000000     96.000000
 
     1   1 0 0     -0.611352     -0.305676     -0.305676     -0.000000
     1   0 1 0     -1.096209     -0.548105     -0.548105      0.000000
     1   0 0 1     -0.351845     -0.175923     -0.175923     -0.000000
 
     2   2 0 0    -47.548549   -323.041001   -323.041001    598.533454
     2   1 1 0      3.609309     -1.934088     -1.934088      7.477484
     2   1 0 1      1.929638      0.362525      0.362525      1.204587
     2   0 2 0    -55.010261   -638.284526   -638.284526   1221.558791
     2   0 1 1      3.130972      0.842792      0.842792      1.445388
     2   0 0 2    -52.313715    -91.748087    -91.748087    131.182460
 

 Parallel integral file used     538 records with       0 large values

 
 
                            NWChem DFT Gradient Module
                            --------------------------
 
 
                               Dextran Optimization
 
 

  charge          =   0.00
  wavefunction    = closed shell



                         DFT ENERGY GRADIENTS

    atom               coordinates                        gradient
                 x          y          z           x          y          z
   1 C      -2.770610   2.162108   0.390976   -0.000762   0.001309  -0.008800
   2 C      -0.123039   3.240719   0.996131    0.010441   0.002083  -0.000258
   3 C       1.926256   1.684249  -0.377686    0.013386   0.004353  -0.012473
   4 O       4.259468   2.682395   0.563686   -0.021690  -0.002662   0.000524
   5 C       1.653772  -1.123167   0.372469    0.007357  -0.003210   0.012139
   6 C      -1.069278  -2.068547  -0.130937    0.003151   0.002678  -0.009006
   7 C      -1.551698  -4.684367   1.033911    0.002943  -0.005475  -0.006057
   8 O       0.120696  -6.469818  -0.136953   -0.010776   0.019431   0.013979
   9 O      -2.892102  -0.453127   1.114122    0.007151   0.003707  -0.017291
  10 O       3.352930  -2.450825  -1.260335   -0.016089   0.020548   0.006371
  11 O      -0.156265   5.812855   0.198117   -0.012421  -0.017297   0.007101
  12 O      -3.119672   2.287501  -2.253022    0.005151  -0.009635   0.016131
  13 H      -1.467062  -2.045399  -2.199705   -0.007042   0.002870  -0.010184
  14 H      -4.338380   3.037124   1.469506   -0.011222  -0.001201   0.004547
  15 H       0.209413   3.223891   3.083371    0.001660   0.009970   0.012298
  16 H       1.857091   1.941243  -2.467288    0.007318   0.005551  -0.012678
  17 H       2.245002  -1.430118   2.366688    0.008991  -0.006755   0.005479
  18 H      -4.862096   1.867115  -2.726385   -0.002692  -0.001558  -0.002108
  19 H       1.602801   6.413765  -0.013450    0.008509   0.003263  -0.002991
  20 H      -1.026691  -4.767649   3.058403    0.005871  -0.006902   0.008834
  21 H      -3.540803  -5.273303   0.822351   -0.003335  -0.004959  -0.001679
  22 H       3.223051  -4.300845  -0.913716    0.001236  -0.012534   0.001972
  23 H       5.682982   1.726120  -0.168097    0.005422  -0.003626  -0.002465
  24 H      -0.498164  -6.929756  -1.825779   -0.002558   0.000052  -0.003386
 
                 ----------------------------------------
                 |  Time  |  1-e(secs)   |  2-e(secs)   |
                 ----------------------------------------
                 |  CPU   |       0.02   |       5.97   |
                 ----------------------------------------
                 |  WALL  |       0.03   |       6.86   |
                 ----------------------------------------

@ Step       Energy      Delta E   Gmax     Grms     Xrms     Xmax   Walltime
@ ---- ---------------- -------- -------- -------- -------- -------- --------
@    0    -686.92664205  0.0D+00  0.02562  0.00530  0.00000  0.00000    124.6
                                                                    



                                Z-matrix (autoz)
                                -------- 

 Units are Angstrom for bonds and degrees for angles
 
      Type          Name      I     J     K     L     M      Value     Gradient
      ----------- --------  ----- ----- ----- ----- ----- ---------- ----------
    1 Stretch                  1     2                       1.54636    0.00843
    2 Stretch                  1     9                       1.43729   -0.01262
    3 Stretch                  1    12                       1.41284   -0.01473
    4 Stretch                  1    14                       1.10834    0.01024
    5 Stretch                  2     3                       1.54367    0.00476
    6 Stretch                  2    11                       1.42523   -0.01457
[...]
   12 O                    8.0000    -1.70931264     1.29002232    -1.21970059
   13 H                    1.0000    -0.74383065    -1.09821354    -1.14495341
   14 H                    1.0000    -2.24329116     1.66014395     0.77625560
   15 H                    1.0000     0.06766096     1.58389236     1.58632842
   16 H                    1.0000     0.83089574     0.95646605    -1.30145488
   17 H                    1.0000     1.08081834    -0.66266238     1.27394037
   18 H                    1.0000    -2.65879265     1.17431048    -1.42115754
   19 H                    1.0000     0.93860248     3.35106291     0.15362783
   20 H                    1.0000    -0.60963072    -2.48793956     1.59468758
   21 H                    1.0000    -1.82931112    -2.81641725     0.34650697
   22 H                    1.0000     1.71835792    -2.27555426    -0.39890742
   23 H                    1.0000     2.96714682     0.88238211    -0.22383765
   24 H                    1.0000    -0.14249451    -3.77623236    -0.91338242
 
      Atomic Mass 
      ----------- 
 
      C                 12.000000
      O                 15.994910
      H                  1.007825
 

 Effective nuclear repulsion energy (a.u.)     827.3774954752

            Nuclear Dipole moment (a.u.) 
            ----------------------------
        X                 Y               Z
 ---------------- ---------------- ----------------
     2.0467787779     0.7362714338    -0.6052872094
 
 
                Final and change from initial internal coordinates
                --------------------------------------------------
 


                                Z-matrix (autoz)
                                -------- 

 Units are Angstrom for bonds and degrees for angles
 
      Type          Name      I     J     K     L     M      Value       Change
      ----------- --------  ----- ----- ----- ----- ----- ---------- ----------
    1 Stretch                  1     2                       1.52655   -0.01981
    2 Stretch                  1     9                       1.46212    0.02483
    3 Stretch                  1    12                       1.42798    0.01514
    4 Stretch                  1    14                       1.09212   -0.01623
    5 Stretch                  2     3                       1.52421   -0.01947
    6 Stretch                  2    11                       1.43946    0.01424
    7 Stretch                  2    15                       1.10001   -0.01847
    8 Stretch                  3     4                       1.45311    0.02077
    9 Stretch                  3     5                       1.52169   -0.02279
   10 Stretch                  3    16                       1.09635   -0.01835
   11 Stretch                  4    23                       0.97884   -0.00781
   12 Stretch                  5     6                       1.53748   -0.01096
   13 Stretch                  5    10                       1.45104    0.01973
   14 Stretch                  5    17                       1.10116   -0.01146
   15 Stretch                  6     7                       1.52638   -0.01025
   16 Stretch                  6     9                       1.47047    0.02295
   17 Stretch                  6    13                       1.09782   -0.01705
   18 Stretch                  7     8                       1.46976    0.03456
   19 Stretch                  7    20                       1.09143   -0.01620
   20 Stretch                  7    21                       1.09513   -0.00832
   21 Stretch                  8    24                       0.97799   -0.00443
   22 Stretch                 10    22                       0.98520   -0.01319
   23 Stretch                 11    19                       0.98059   -0.00944
   24 Stretch                 12    18                       0.97749   -0.00354
   25 Bend                     1     2     3               109.85738   -0.14218
   26 Bend                     1     2    11               109.69886    3.44055
   27 Bend                     1     2    15               106.95586   -3.16941
   28 Bend                     1     9     6               113.79947   -0.88607
   29 Bend                     1    12    18               110.65762   -0.75567
   30 Bend                     2     1     9               108.76285   -1.16237
   31 Bend                     2     1    12               108.99908    1.16877
   32 Bend                     2     1    14               111.56134   -3.10541
   33 Bend                     2     3     4               106.20023    2.01763
   34 Bend                     2     3     5               110.00490    0.94244
   35 Bend                     2     3    16               109.65380   -2.61882
   36 Bend                     2    11    19               107.33999   -1.84695
   37 Bend                     3     2    11               111.87921   -0.37322
   38 Bend                     3     2    15               108.17216   -2.33515
   39 Bend                     3     4    23               108.43511   -0.98493
   40 Bend                     3     5     6               110.23983   -0.45758
   41 Bend                     3     5    10               106.79386    1.82217
   42 Bend                     3     5    17               108.69036   -2.28415
   43 Bend                     4     3     5               111.43349    1.20301
   44 Bend                     4     3    16               110.18826    1.02162
   45 Bend                     5     3    16               109.31397   -2.35522
   46 Bend                     5     6     7               112.79677    0.67152
   47 Bend                     5     6     9               109.98968   -0.56062
   48 Bend                     5     6    13               108.67182   -1.27156
   49 Bend                     5    10    22               107.71759   -1.37918
   50 Bend                     6     5    10               111.85050    3.05655
   51 Bend                     6     5    17               108.89264   -3.29814
   52 Bend                     6     7     8               110.46441    1.95824
   53 Bend                     6     7    20               110.06524   -2.40260
   54 Bend                     6     7    21               110.70497   -1.14636
   55 Bend                     7     6     9               105.18371    1.37418
   56 Bend                     7     6    13               110.78676   -1.07911
   57 Bend                     7     8    24               110.47331   -0.02995
   58 Bend                     8     7    20               105.54094    1.84917
   59 Bend                     8     7    21               111.31104    0.30418
   60 Bend                     9     1    12               111.07240    3.43231
   61 Bend                     9     1    14               104.23363    0.83769
   62 Bend                     9     6    13               109.34132    1.00216
   63 Bend                    10     5    17               110.31731    1.39649
   64 Bend                    11     2    15               110.14444    2.55804
   65 Bend                    12     1    14               112.11317   -0.99484
   66 Bend                    20     7    21               108.61165   -0.42404
   67 Torsion                  1     2     3     4        -178.91763   -5.34022
   68 Torsion                  1     2     3     5         -58.20464   -2.31722
   69 Torsion                  1     2     3    16          62.04575   -6.37848
   70 Torsion                  1     2    11    19        -166.38656   -5.82531
   71 Torsion                  1     9     6     5          57.94315    0.15458
   72 Torsion                  1     9     6     7         179.67463    1.46517
   73 Torsion                  1     9     6    13         -61.31410    1.42997
   74 Torsion                  2     1     9     6         -59.95311   -0.47584
   75 Torsion                  2     1    12    18        -165.21911    6.20275
   76 Torsion                  2     3     4    23         175.23048   -2.12141
   77 Torsion                  2     3     5     6          55.74022    1.42677
   78 Torsion                  2     3     5    10         177.45096    5.90967
   79 Torsion                  2     3     5    17         -63.53812    7.40495
   80 Torsion                  3     2     1     9          58.83315    1.24261
   81 Torsion                  3     2     1    12         -62.40310   -2.91642
   82 Torsion                  3     2     1    14         173.25473   -0.28976
   83 Torsion                  3     2    11    19         -44.20692   -3.92736
   84 Torsion                  3     5     6     7        -171.51950   -2.04735
   85 Torsion                  3     5     6     9         -54.44101   -0.28409
   86 Torsion                  3     5     6    13          65.22449   -0.18876
   87 Torsion                  3     5    10    22        -172.94861    5.02466
   88 Torsion                  4     3     2    11          58.99348   -9.34103
   89 Torsion                  4     3     2    15         -62.50099  -10.73069
   90 Torsion                  4     3     5     6         173.24938    5.13144
   91 Torsion                  4     3     5    10         -65.03987    9.61434
   92 Torsion                  4     3     5    17          53.97104   11.10962
   93 Torsion                  5     3     2    11         179.70648   -6.31802
   94 Torsion                  5     3     2    15          58.21201   -7.70769
   95 Torsion                  5     3     4    23          55.44410   -5.02619
   96 Torsion                  5     6     7     8         -58.27614    4.16538
   97 Torsion                  5     6     7    20          57.87631    6.20518
   98 Torsion                  5     6     7    21         177.96184    3.19018
   99 Torsion                  6     5     3    16         -64.71549    5.63708
  100 Torsion                  6     5    10    22         -52.26125    7.19225
  101 Torsion                  6     7     8    24         -82.35906   -5.20873
  102 Torsion                  6     9     1    12          60.00442    2.28577
  103 Torsion                  6     9     1    14        -179.06951    3.27264
  104 Torsion                  7     6     5    10          69.81905   -5.85567
  105 Torsion                  7     6     5    17         -52.36423   -7.45921
  106 Torsion                  8     7     6     9        -178.16332    3.62848
  107 Torsion                  8     7     6    13          63.79671    2.18885
  108 Torsion                  9     1     2    11        -177.79012    2.88915
  109 Torsion                  9     1     2    15         -58.34575    6.09790
  110 Torsion                  9     1    12    18          74.96394    4.93627
  111 Torsion                  9     6     5    10        -173.10246   -4.09240
  112 Torsion                  9     6     5    17          64.71426   -5.69594
  113 Torsion                  9     6     7    20         -62.01087    5.66828
  114 Torsion                  9     6     7    21          58.07466    2.65329
  115 Torsion                 10     5     3    16          56.99525   10.11998
  116 Torsion                 10     5     6    13         -53.43697   -3.99708
  117 Torsion                 11     2     1    12          60.97363   -1.26988
  118 Torsion                 11     2     1    14         -63.36854    1.35679
  119 Torsion                 11     2     3    16         -60.04313  -10.37929
  120 Torsion                 12     1     2    15        -179.58200    1.93887
  121 Torsion                 13     6     5    17        -175.62024   -5.60062
  122 Torsion                 13     6     7    20         179.94916    4.22865
  123 Torsion                 13     6     7    21         -59.96530    1.21366
  124 Torsion                 14     1     2    15          56.07584    4.56553
  125 Torsion                 14     1    12    18         -41.20259    2.34815
  126 Torsion                 15     2     3    16         178.46240  -11.76896
  127 Torsion                 15     2    11    19          76.14358   -5.36380
  128 Torsion                 16     3     4    23         -66.08435   -3.54953
  129 Torsion                 16     3     5    17         176.00617   11.61527
  130 Torsion                 17     5    10    22          69.10274    5.98120
  131 Torsion                 20     7     8    24         158.70209   -4.38975
  132 Torsion                 21     7     8    24          41.05247   -5.09359
 
 ==============================================================================
                                internuclear distances
 ------------------------------------------------------------------------------
       center one      |      center two      | atomic units |  angstroms
 ------------------------------------------------------------------------------
    2 C                |   1 C                |     2.88477  |     1.52655
    3 C                |   2 C                |     2.88033  |     1.52421
    4 O                |   3 C                |     2.74598  |     1.45311
    5 C                |   3 C                |     2.87558  |     1.52169
    6 C                |   5 C                |     2.90541  |     1.53748
    7 C                |   6 C                |     2.88445  |     1.52639
    8 O                |   7 C                |     2.77745  |     1.46976
    9 O                |   1 C                |     2.76301  |     1.46212
    9 O                |   6 C                |     2.77878  |     1.47047
   10 O                |   5 C                |     2.74206  |     1.45104
   11 O                |   2 C                |     2.72019  |     1.43946
   12 O                |   1 C                |     2.69849  |     1.42798
   13 H                |   6 C                |     2.07457  |     1.09782
   14 H                |   1 C                |     2.06380  |     1.09212
   15 H                |   2 C                |     2.07871  |     1.10001
   16 H                |   3 C                |     2.07180  |     1.09635
   17 H                |   5 C                |     2.08089  |     1.10116
   18 H                |  12 O                |     1.84719  |     0.97749
   19 H                |  11 O                |     1.85304  |     0.98059
   20 H                |   7 C                |     2.06250  |     1.09143
   21 H                |   7 C                |     2.06950  |     1.09513
   22 H                |  10 O                |     1.86177  |     0.98520
   23 H                |   4 O                |     1.84974  |     0.97884
   24 H                |   8 O                |     1.84814  |     0.97799
 ------------------------------------------------------------------------------
                         number of included internuclear distances:         24
 ==============================================================================



 ==============================================================================
                                 internuclear angles
 ------------------------------------------------------------------------------
        center 1       |       center 2       |       center 3       |  degrees
 ------------------------------------------------------------------------------
    2 C                |   1 C                |   9 O                |   108.76
    2 C                |   1 C                |  12 O                |   109.00
    2 C                |   1 C                |  14 H                |   111.56
    9 O                |   1 C                |  12 O                |   111.07
    9 O                |   1 C                |  14 H                |   104.23
   12 O                |   1 C                |  14 H                |   112.11
    1 C                |   2 C                |   3 C                |   109.86
    1 C                |   2 C                |  11 O                |   109.70
    1 C                |   2 C                |  15 H                |   106.96
    3 C                |   2 C                |  11 O                |   111.88
    3 C                |   2 C                |  15 H                |   108.17
   11 O                |   2 C                |  15 H                |   110.14
    2 C                |   3 C                |   4 O                |   106.20
    2 C                |   3 C                |   5 C                |   110.00
    2 C                |   3 C                |  16 H                |   109.65
    4 O                |   3 C                |   5 C                |   111.43
    4 O                |   3 C                |  16 H                |   110.19
    5 C                |   3 C                |  16 H                |   109.31
    3 C                |   4 O                |  23 H                |   108.44
    3 C                |   5 C                |   6 C                |   110.24
    3 C                |   5 C                |  10 O                |   106.79
    3 C                |   5 C                |  17 H                |   108.69
    6 C                |   5 C                |  10 O                |   111.85
    6 C                |   5 C                |  17 H                |   108.89
   10 O                |   5 C                |  17 H                |   110.32
    5 C                |   6 C                |   7 C                |   112.80
    5 C                |   6 C                |   9 O                |   109.99
    5 C                |   6 C                |  13 H                |   108.67
    7 C                |   6 C                |   9 O                |   105.18
    7 C                |   6 C                |  13 H                |   110.79
    9 O                |   6 C                |  13 H                |   109.34
    6 C                |   7 C                |   8 O                |   110.46
    6 C                |   7 C                |  20 H                |   110.07
    6 C                |   7 C                |  21 H                |   110.70
    8 O                |   7 C                |  20 H                |   105.54
    8 O                |   7 C                |  21 H                |   111.31
   20 H                |   7 C                |  21 H                |   108.61
    7 C                |   8 O                |  24 H                |   110.47
    1 C                |   9 O                |   6 C                |   113.80
    5 C                |  10 O                |  22 H                |   107.72
    2 C                |  11 O                |  19 H                |   107.34
    1 C                |  12 O                |  18 H                |   110.66
 ------------------------------------------------------------------------------
                            number of included internuclear angles:         42
 ==============================================================================




 Task  times  cpu:     1837.0s     wall:     1978.1s
 
 
                                NWChem Input Module
                                -------------------
 
 
 ------------------------------------------------------------------------
 usage: task <string theory>                                                                                                           911
 ------------------------------------------------------------------------
 There is an error in the input file
 ------------------------------------------------------------------------
 For more information see the NWChem manual at 
 http://www.nwchem-sw.org/index.php/NWChem_Documentation


 For further details see manual section: 
                                                                                
                                                                                
                                                                                
                   
0:usage: task <string theory>:Received an Error in Communication
application called MPI_Abort(comm=0x84000000, 911) - process 0
